80
Energy = -2647.233738715
C    -1.2487380    0.7332523   -2.5000830 
C    -0.0000000    1.4341496   -2.4999291 
C    -0.0000000    2.8684492   -2.4998563 
C    -1.2321323    3.5753514   -2.5001334 
C    -2.4302334    2.8745540   -2.5003765 
C    -2.4351362    1.4780544   -2.5003510 
C    -1.2487380   -0.7332523   -2.5000830 
C    -0.0000000   -1.4341496   -2.4999291 
C    -0.0000000   -2.8684492   -2.4998563 
C    -1.2321323   -3.5753514   -2.5001334 
C    -2.4302334   -2.8745540   -2.5003765 
C    -2.4351362   -1.4780544   -2.5003510 
H    -3.3633320    3.4386557   -2.5004869 
H    -3.3983369    0.9708565   -2.5005475 
H    -3.3633320   -3.4386557   -2.5004869 
H    -3.3983369   -0.9708565   -2.5005475 
C     1.2321323    3.5753514   -2.5001334 
C     2.4302334    2.8745540   -2.5003765 
H     3.3633320    3.4386557   -2.5004869 
C     2.4351362    1.4780544   -2.5003510 
H     3.3983369    0.9708565   -2.5005475 
C     1.2487380    0.7332523   -2.5000830 
C     1.2487380   -0.7332523   -2.5000830 
C     2.4351362   -1.4780544   -2.5003510 
H     3.3983369   -0.9708565   -2.5005475 
C     2.4302334   -2.8745540   -2.5003765 
H     3.3633320   -3.4386557   -2.5004869 
C     1.2321323   -3.5753514   -2.5001334 
C     1.2565699    5.0574460   -2.4997290 
C    -1.2565699    5.0574460   -2.4997290 
N    -0.0000000    5.6683484   -2.4999093 
H    -0.0000000    6.6891481   -2.5000287 
O     2.2810710    5.7311438   -2.4996225 
O    -2.2810710    5.7311438   -2.4996225 
C    -1.2565699   -5.0574460   -2.4997290 
C     1.2565699   -5.0574460   -2.4997290 
N    -0.0000000   -5.6683484   -2.4999093 
O     2.2810710   -5.7311438   -2.4996225 
O    -2.2810710   -5.7311438   -2.4996225 
H    -0.0000000   -6.6891481   -2.5000287 
C    -1.2487380    0.7332523    2.5000830 
C    -0.0000000    1.4341496    2.4999291 
C    -0.0000000    2.8684492    2.4998563 
C    -1.2321323    3.5753514    2.5001334 
C    -2.4302334    2.8745540    2.5003765 
C    -2.4351362    1.4780544    2.5003510 
C    -1.2487380   -0.7332523    2.5000830 
C    -0.0000000   -1.4341496    2.4999291 
C    -0.0000000   -2.8684492    2.4998563 
C    -1.2321323   -3.5753514    2.5001334 
C    -2.4302334   -2.8745540    2.5003765 
C    -2.4351362   -1.4780544    2.5003510 
H    -3.3633320    3.4386557    2.5004869 
H    -3.3983369    0.9708565    2.5005475 
H    -3.3633320   -3.4386557    2.5004869 
H    -3.3983369   -0.9708565    2.5005475 
C     1.2321323    3.5753514    2.5001334 
C     2.4302334    2.8745540    2.5003765 
H     3.3633320    3.4386557    2.5004869 
C     2.4351362    1.4780544    2.5003510 
H     3.3983369    0.9708565    2.5005475 
C     1.2487380    0.7332523    2.5000830 
C     1.2487380   -0.7332523    2.5000830 
C     2.4351362   -1.4780544    2.5003510 
H     3.3983369   -0.9708565    2.5005475 
C     2.4302334   -2.8745540    2.5003765 
H     3.3633320   -3.4386557    2.5004869 
C     1.2321323   -3.5753514    2.5001334 
C     1.2565699    5.0574460    2.4997290 
C    -1.2565699    5.0574460    2.4997290 
N    -0.0000000    5.6683484    2.4999093 
H    -0.0000000    6.6891481    2.5000287 
O     2.2810710    5.7311438    2.4996225 
O    -2.2810710    5.7311438    2.4996225 
C    -1.2565699   -5.0574460    2.4997290 
C     1.2565699   -5.0574460    2.4997290 
N    -0.0000000   -5.6683484    2.4999093 
O     2.2810710   -5.7311438    2.4996225 
O    -2.2810710   -5.7311438    2.4996225 
H    -0.0000000   -6.6891481    2.5000287 
