48
Energy = -1072.266211773
C     1.2246228    0.7243188   -2.2494503 
C     2.4790182    1.4077446   -2.2501131 
C     3.6635747    0.7120805   -2.2507948 
C     3.6635747   -0.7120805   -2.2507948 
C     2.4790182   -1.4077446   -2.2501131 
C     1.2246228   -0.7243188   -2.2494503 
H     2.4779279    2.4997912   -2.2501665 
H     4.6133196    1.2488860   -2.2514578 
H     4.6133196   -1.2488860   -2.2514578 
H     2.4779279   -2.4997912   -2.2501665 
C     0.0000000   -1.4059204   -2.2487064 
C    -1.2246228   -0.7243188   -2.2494503 
C    -1.2246228    0.7243188   -2.2494503 
C     0.0000000    1.4059204   -2.2487064 
H     0.0000000   -2.4992250   -2.2485830 
H     0.0000000    2.4992250   -2.2485830 
C    -2.4790182   -1.4077446   -2.2501131 
C    -3.6635747   -0.7120805   -2.2507948 
C    -3.6635747    0.7120805   -2.2507948 
C    -2.4790182    1.4077446   -2.2501131 
H    -2.4779279   -2.4997912   -2.2501665 
H    -4.6133196   -1.2488860   -2.2514578 
H    -4.6133196    1.2488860   -2.2514578 
H    -2.4779279    2.4997912   -2.2501665 
C     1.2246228    0.7243188    2.2494503 
C     2.4790182    1.4077446    2.2501131 
C     3.6635747    0.7120805    2.2507948 
C     3.6635747   -0.7120805    2.2507948 
C     2.4790182   -1.4077446    2.2501131 
C     1.2246228   -0.7243188    2.2494503 
H     2.4779279    2.4997912    2.2501665 
H     4.6133196    1.2488860    2.2514578 
H     4.6133196   -1.2488860    2.2514578 
H     2.4779279   -2.4997912    2.2501665 
C     0.0000000   -1.4059204    2.2487064 
C    -1.2246228   -0.7243188    2.2494503 
C    -1.2246228    0.7243188    2.2494503 
C     0.0000000    1.4059204    2.2487064 
H     0.0000000   -2.4992250    2.2485830 
H     0.0000000    2.4992250    2.2485830 
C    -2.4790182   -1.4077446    2.2501131 
C    -3.6635747   -0.7120805    2.2507948 
C    -3.6635747    0.7120805    2.2507948 
C    -2.4790182    1.4077446    2.2501131 
H    -2.4779279   -2.4997912    2.2501665 
H    -4.6133196   -1.2488860    2.2514578 
H    -4.6133196    1.2488860    2.2514578 
H    -2.4779279    2.4997912    2.2501665 
