60
Energy = -1377.648614326
C     2.4518957    0.7272988   -2.4968109 
C     3.7101819    1.4100714   -2.4976498 
C     4.8921352    0.7146858   -2.5021531 
C     4.8921352   -0.7146858   -2.5021531 
C     3.7101819   -1.4100714   -2.4976498 
C     2.4518957   -0.7272988   -2.4968109 
H     3.7090741    2.5021376   -2.4951246 
H     5.8424886    1.2503993   -2.5033129 
H     5.8424886   -1.2503993   -2.5033129 
H     3.7090741   -2.5021376   -2.4951246 
C     1.2337038   -1.4085550   -2.4972953 
C     0.0000000   -0.7282366   -2.4955948 
C     0.0000000    0.7282366   -2.4955948 
C     1.2337038    1.4085550   -2.4972953 
H     1.2343099   -2.5016853   -2.4982096 
H     1.2343099    2.5016853   -2.4982096 
C    -1.2337038   -1.4085550   -2.4972953 
C    -2.4518957   -0.7272988   -2.4968109 
C    -2.4518957    0.7272988   -2.4968109 
C    -1.2337038    1.4085550   -2.4972953 
H    -1.2343099   -2.5016853   -2.4982096 
H    -1.2343099    2.5016853   -2.4982096 
C    -3.7101819   -1.4100714   -2.4976498 
C    -4.8921352   -0.7146858   -2.5021531 
C    -4.8921352    0.7146858   -2.5021531 
C    -3.7101819    1.4100714   -2.4976498 
H    -3.7090741   -2.5021376   -2.4951246 
H    -5.8424886   -1.2503993   -2.5033129 
H    -5.8424886    1.2503993   -2.5033129 
H    -3.7090741    2.5021376   -2.4951246 
C     2.4518957    0.7272988    2.4968109 
C     3.7101819    1.4100714    2.4976498 
C     4.8921352    0.7146858    2.5021531 
C     4.8921352   -0.7146858    2.5021531 
C     3.7101819   -1.4100714    2.4976498 
C     2.4518957   -0.7272988    2.4968109 
H     3.7090741    2.5021376    2.4951246 
H     5.8424886    1.2503993    2.5033129 
H     5.8424886   -1.2503993    2.5033129 
H     3.7090741   -2.5021376    2.4951246 
C     1.2337038   -1.4085550    2.4972953 
C     0.0000000   -0.7282366    2.4955948 
C     0.0000000    0.7282366    2.4955948 
C     1.2337038    1.4085550    2.4972953 
H     1.2343099   -2.5016853    2.4982096 
H     1.2343099    2.5016853    2.4982096 
C    -1.2337038   -1.4085550    2.4972953 
C    -2.4518957   -0.7272988    2.4968109 
C    -2.4518957    0.7272988    2.4968109 
C    -1.2337038    1.4085550    2.4972953 
H    -1.2343099   -2.5016853    2.4982096 
H    -1.2343099    2.5016853    2.4982096 
C    -3.7101819   -1.4100714    2.4976498 
C    -4.8921352   -0.7146858    2.5021531 
C    -4.8921352    0.7146858    2.5021531 
C    -3.7101819    1.4100714    2.4976498 
H    -3.7090741   -2.5021376    2.4951246 
H    -5.8424886   -1.2503993    2.5033129 
H    -5.8424886    1.2503993    2.5033129 
H    -3.7090741    2.5021376    2.4951246 
