64
Energy = -1529.199094921
C    -1.2491482    0.7365498   -1.7499838 
C    -0.0000000    1.4388496   -1.7499615 
C    -0.0000000    2.8778492   -1.7499204 
C    -1.2335208    3.5776478   -1.7499026 
C    -2.4264759    2.8852434   -1.7499245 
C    -2.4306884    1.4796442   -1.7499647 
C    -1.2491482   -0.7365498   -1.7499838 
C    -0.0000000   -1.4388496   -1.7499615 
C    -0.0000000   -2.8778492   -1.7499204 
C    -1.2335208   -3.5776478   -1.7499026 
C    -2.4264759   -2.8852434   -1.7499245 
C    -2.4306884   -1.4796442   -1.7499647 
H    -1.2202334    4.6691464   -1.7498714 
H    -3.3753325    3.4236193   -1.7499109 
H    -3.3939288    0.9713214   -1.7499810 
H    -1.2202334   -4.6691464   -1.7498714 
H    -3.3753325   -3.4236193   -1.7499109 
H    -3.3939288   -0.9713214   -1.7499810 
C     1.2335208    3.5776478   -1.7499026 
C     2.4264759    2.8852434   -1.7499245 
H     3.3753325    3.4236193   -1.7499109 
C     2.4306884    1.4796442   -1.7499647 
H     3.3939288    0.9713214   -1.7499810 
C     1.2491482    0.7365498   -1.7499838 
H     1.2202334    4.6691464   -1.7498714 
C     1.2491482   -0.7365498   -1.7499838 
C     2.4306884   -1.4796442   -1.7499647 
H     3.3939288   -0.9713214   -1.7499810 
C     2.4264759   -2.8852434   -1.7499245 
H     3.3753325   -3.4236193   -1.7499109 
C     1.2335208   -3.5776478   -1.7499026 
H     1.2202334   -4.6691464   -1.7498714 
C    -1.2491482    0.7365498    1.7499838 
C    -0.0000000    1.4388496    1.7499615 
C    -0.0000000    2.8778492    1.7499204 
C    -1.2335208    3.5776478    1.7499026 
C    -2.4264759    2.8852434    1.7499245 
C    -2.4306884    1.4796442    1.7499647 
C    -1.2491482   -0.7365498    1.7499838 
C    -0.0000000   -1.4388496    1.7499615 
C    -0.0000000   -2.8778492    1.7499204 
C    -1.2335208   -3.5776478    1.7499026 
C    -2.4264759   -2.8852434    1.7499245 
C    -2.4306884   -1.4796442    1.7499647 
H    -1.2202334    4.6691464    1.7498714 
H    -3.3753325    3.4236193    1.7499109 
H    -3.3939288    0.9713214    1.7499810 
H    -1.2202334   -4.6691464    1.7498714 
H    -3.3753325   -3.4236193    1.7499109 
H    -3.3939288   -0.9713214    1.7499810 
C     1.2335208    3.5776478    1.7499026 
C     2.4264759    2.8852434    1.7499245 
H     3.3753325    3.4236193    1.7499109 
C     2.4306884    1.4796442    1.7499647 
H     3.3939288    0.9713214    1.7499810 
C     1.2491482    0.7365498    1.7499838 
H     1.2202334    4.6691464    1.7498714 
C     1.2491482   -0.7365498    1.7499838 
C     2.4306884   -1.4796442    1.7499647 
H     3.3939288   -0.9713214    1.7499810 
C     2.4264759   -2.8852434    1.7499245 
H     3.3753325   -3.4236193    1.7499109 
C     1.2335208   -3.5776478    1.7499026 
H     1.2202334   -4.6691464    1.7498714 
