48
Energy = -1072.265308149
C     1.2245019    0.7243188   -2.4994489 
C     2.4788972    1.4077446   -2.5001104 
C     3.6634538    0.7120805   -2.5007930 
C     3.6634538   -0.7120805   -2.5007930 
C     2.4788972   -1.4077446   -2.5001104 
C     1.2245019   -0.7243188   -2.4994489 
H     2.4778069    2.4997912   -2.5001621 
H     4.6131986    1.2488860   -2.5014550 
H     4.6131986   -1.2488860   -2.5014550 
H     2.4778069   -2.4997912   -2.5001621 
C     0.0000000   -1.4059204   -2.4987086 
C    -1.2245019   -0.7243188   -2.4994489 
C    -1.2245019    0.7243188   -2.4994489 
C     0.0000000    1.4059204   -2.4987086 
H     0.0000000   -2.4992250   -2.4985869 
H     0.0000000    2.4992250   -2.4985869 
C    -2.4788972   -1.4077446   -2.5001104 
C    -3.6634538   -0.7120805   -2.5007930 
C    -3.6634538    0.7120805   -2.5007930 
C    -2.4788972    1.4077446   -2.5001104 
H    -2.4778069   -2.4997912   -2.5001621 
H    -4.6131986   -1.2488860   -2.5014550 
H    -4.6131986    1.2488860   -2.5014550 
H    -2.4778069    2.4997912   -2.5001621 
C     1.2245019    0.7243188    2.4994489 
C     2.4788972    1.4077446    2.5001104 
C     3.6634538    0.7120805    2.5007930 
C     3.6634538   -0.7120805    2.5007930 
C     2.4788972   -1.4077446    2.5001104 
C     1.2245019   -0.7243188    2.4994489 
H     2.4778069    2.4997912    2.5001621 
H     4.6131986    1.2488860    2.5014550 
H     4.6131986   -1.2488860    2.5014550 
H     2.4778069   -2.4997912    2.5001621 
C     0.0000000   -1.4059204    2.4987086 
C    -1.2245019   -0.7243188    2.4994489 
C    -1.2245019    0.7243188    2.4994489 
C     0.0000000    1.4059204    2.4987086 
H     0.0000000   -2.4992250    2.4985869 
H     0.0000000    2.4992250    2.4985869 
C    -2.4788972   -1.4077446    2.5001104 
C    -3.6634538   -0.7120805    2.5007930 
C    -3.6634538    0.7120805    2.5007930 
C    -2.4788972    1.4077446    2.5001104 
H    -2.4778069   -2.4997912    2.5001621 
H    -4.6131986   -1.2488860    2.5014550 
H    -4.6131986    1.2488860    2.5014550 
H    -2.4778069    2.4997912    2.5001621 
