80
Energy = -2647.234536408
C    -1.2487575    0.7332523   -2.2501143 
C    -0.0000000    1.4341496   -2.2499322 
C    -0.0000000    2.8684492   -2.2498624 
C    -1.2321519    3.5753514   -2.2501703 
C    -2.4302529    2.8745540   -2.2504404 
C    -2.4351557    1.4780544   -2.2504121 
C    -1.2487575   -0.7332523   -2.2501143 
C    -0.0000000   -1.4341496   -2.2499322 
C    -0.0000000   -2.8684492   -2.2498624 
C    -1.2321519   -3.5753514   -2.2501703 
C    -2.4302529   -2.8745540   -2.2504404 
C    -2.4351557   -1.4780544   -2.2504121 
H    -3.3633515    3.4386557   -2.2505742 
H    -3.3983565    0.9708565   -2.2506304 
H    -3.3633515   -3.4386557   -2.2505742 
H    -3.3983565   -0.9708565   -2.2506304 
C     1.2321519    3.5753514   -2.2501703 
C     2.4302529    2.8745540   -2.2504404 
H     3.3633515    3.4386557   -2.2505742 
C     2.4351557    1.4780544   -2.2504121 
H     3.3983565    0.9708565   -2.2506304 
C     1.2487575    0.7332523   -2.2501143 
C     1.2487575   -0.7332523   -2.2501143 
C     2.4351557   -1.4780544   -2.2504121 
H     3.3983565   -0.9708565   -2.2506304 
C     2.4302529   -2.8745540   -2.2504404 
H     3.3633515   -3.4386557   -2.2505742 
C     1.2321519   -3.5753514   -2.2501703 
C     1.2565504    5.0574460   -2.2497098 
C    -1.2565504    5.0574460   -2.2497098 
N    -0.0000000    5.6683483   -2.2499213 
H    -0.0000000    6.6891480   -2.2500429 
O     2.2810515    5.7311438   -2.2495804 
O    -2.2810515    5.7311438   -2.2495804 
C    -1.2565504   -5.0574460   -2.2497098 
C     1.2565504   -5.0574460   -2.2497098 
N    -0.0000000   -5.6683483   -2.2499213 
O     2.2810515   -5.7311438   -2.2495804 
O    -2.2810515   -5.7311438   -2.2495804 
H    -0.0000000   -6.6891480   -2.2500429 
C    -1.2487575    0.7332523    2.2501143 
C    -0.0000000    1.4341496    2.2499322 
C    -0.0000000    2.8684492    2.2498624 
C    -1.2321519    3.5753514    2.2501703 
C    -2.4302529    2.8745540    2.2504404 
C    -2.4351557    1.4780544    2.2504121 
C    -1.2487575   -0.7332523    2.2501143 
C    -0.0000000   -1.4341496    2.2499322 
C    -0.0000000   -2.8684492    2.2498624 
C    -1.2321519   -3.5753514    2.2501703 
C    -2.4302529   -2.8745540    2.2504404 
C    -2.4351557   -1.4780544    2.2504121 
H    -3.3633515    3.4386557    2.2505742 
H    -3.3983565    0.9708565    2.2506304 
H    -3.3633515   -3.4386557    2.2505742 
H    -3.3983565   -0.9708565    2.2506304 
C     1.2321519    3.5753514    2.2501703 
C     2.4302529    2.8745540    2.2504404 
H     3.3633515    3.4386557    2.2505742 
C     2.4351557    1.4780544    2.2504121 
H     3.3983565    0.9708565    2.2506304 
C     1.2487575    0.7332523    2.2501143 
C     1.2487575   -0.7332523    2.2501143 
C     2.4351557   -1.4780544    2.2504121 
H     3.3983565   -0.9708565    2.2506304 
C     2.4302529   -2.8745540    2.2504404 
H     3.3633515   -3.4386557    2.2505742 
C     1.2321519   -3.5753514    2.2501703 
C     1.2565504    5.0574460    2.2497098 
C    -1.2565504    5.0574460    2.2497098 
N    -0.0000000    5.6683483    2.2499213 
H    -0.0000000    6.6891480    2.2500429 
O     2.2810515    5.7311438    2.2495804 
O    -2.2810515    5.7311438    2.2495804 
C    -1.2565504   -5.0574460    2.2497098 
C     1.2565504   -5.0574460    2.2497098 
N    -0.0000000   -5.6683483    2.2499213 
O     2.2810515   -5.7311438    2.2495804 
O    -2.2810515   -5.7311438    2.2495804 
H    -0.0000000   -6.6891480    2.2500429 
