80
Energy = -2647.210858859
C    -1.2487966    0.7332523   -1.7502037 
C    -0.0000000    1.4341496   -1.7499410 
C    -0.0000000    2.8684491   -1.7498798 
C    -1.2321909    3.5753514   -1.7502757 
C    -2.4302920    2.8745540   -1.7506230 
C    -2.4351947    1.4780544   -1.7505866 
C    -1.2487966   -0.7332523   -1.7502037 
C    -0.0000000   -1.4341496   -1.7499410 
C    -0.0000000   -2.8684491   -1.7498798 
C    -1.2321909   -3.5753514   -1.7502757 
C    -2.4302920   -2.8745540   -1.7506230 
C    -2.4351947   -1.4780544   -1.7505866 
H    -3.3633906    3.4386557   -1.7508236 
H    -3.3983955    0.9708565   -1.7508673 
H    -3.3633906   -3.4386557   -1.7508236 
H    -3.3983955   -0.9708565   -1.7508673 
C     1.2321909    3.5753514   -1.7502757 
C     2.4302920    2.8745540   -1.7506230 
H     3.3633906    3.4386557   -1.7508236 
C     2.4351947    1.4780544   -1.7505866 
H     3.3983955    0.9708565   -1.7508673 
C     1.2487966    0.7332523   -1.7502037 
C     1.2487966   -0.7332523   -1.7502037 
C     2.4351947   -1.4780544   -1.7505866 
H     3.3983955   -0.9708565   -1.7508673 
C     2.4302920   -2.8745540   -1.7506230 
H     3.3633906   -3.4386557   -1.7508236 
C     1.2321909   -3.5753514   -1.7502757 
C     1.2565114    5.0574459   -1.7496551 
C    -1.2565114    5.0574459   -1.7496551 
N    -0.0000000    5.6683483   -1.7499556 
H    -0.0000000    6.6891479   -1.7500833 
O     2.2810124    5.7311437   -1.7494602 
O    -2.2810124    5.7311437   -1.7494602 
C    -1.2565114   -5.0574459   -1.7496551 
C     1.2565114   -5.0574459   -1.7496551 
N    -0.0000000   -5.6683483   -1.7499556 
O     2.2810124   -5.7311437   -1.7494602 
O    -2.2810124   -5.7311437   -1.7494602 
H    -0.0000000   -6.6891479   -1.7500833 
C    -1.2487966    0.7332523    1.7502037 
C    -0.0000000    1.4341496    1.7499410 
C    -0.0000000    2.8684491    1.7498798 
C    -1.2321909    3.5753514    1.7502757 
C    -2.4302920    2.8745540    1.7506230 
C    -2.4351947    1.4780544    1.7505866 
C    -1.2487966   -0.7332523    1.7502037 
C    -0.0000000   -1.4341496    1.7499410 
C    -0.0000000   -2.8684491    1.7498798 
C    -1.2321909   -3.5753514    1.7502757 
C    -2.4302920   -2.8745540    1.7506230 
C    -2.4351947   -1.4780544    1.7505866 
H    -3.3633906    3.4386557    1.7508236 
H    -3.3983955    0.9708565    1.7508673 
H    -3.3633906   -3.4386557    1.7508236 
H    -3.3983955   -0.9708565    1.7508673 
C     1.2321909    3.5753514    1.7502757 
C     2.4302920    2.8745540    1.7506230 
H     3.3633906    3.4386557    1.7508236 
C     2.4351947    1.4780544    1.7505866 
H     3.3983955    0.9708565    1.7508673 
C     1.2487966    0.7332523    1.7502037 
C     1.2487966   -0.7332523    1.7502037 
C     2.4351947   -1.4780544    1.7505866 
H     3.3983955   -0.9708565    1.7508673 
C     2.4302920   -2.8745540    1.7506230 
H     3.3633906   -3.4386557    1.7508236 
C     1.2321909   -3.5753514    1.7502757 
C     1.2565114    5.0574459    1.7496551 
C    -1.2565114    5.0574459    1.7496551 
N    -0.0000000    5.6683483    1.7499556 
H    -0.0000000    6.6891479    1.7500833 
O     2.2810124    5.7311437    1.7494602 
O    -2.2810124    5.7311437    1.7494602 
C    -1.2565114   -5.0574459    1.7496551 
C     1.2565114   -5.0574459    1.7496551 
N    -0.0000000   -5.6683483    1.7499556 
O     2.2810124   -5.7311437    1.7494602 
O    -2.2810124   -5.7311437    1.7494602 
H    -0.0000000   -6.6891479    1.7500833 
