80
Energy = -2647.232222292
C    -1.2487771    0.7332523   -2.0001534 
C    -0.0000000    1.4341496   -1.9999360 
C    -0.0000000    2.8684491   -1.9998700 
C    -1.2321714    3.5753514   -2.0002164 
C    -2.4302724    2.8745540   -2.0005203 
C    -2.4351752    1.4780544   -2.0004884 
C    -1.2487771   -0.7332523   -2.0001534 
C    -0.0000000   -1.4341496   -1.9999360 
C    -0.0000000   -2.8684491   -1.9998700 
C    -1.2321714   -3.5753514   -2.0002164 
C    -2.4302724   -2.8745540   -2.0005203 
C    -2.4351752   -1.4780544   -2.0004884 
H    -3.3633711    3.4386557   -2.0006833 
H    -3.3983760    0.9708565   -2.0007341 
H    -3.3633711   -3.4386557   -2.0006833 
H    -3.3983760   -0.9708565   -2.0007341 
C     1.2321714    3.5753514   -2.0002164 
C     2.4302724    2.8745540   -2.0005203 
H     3.3633711    3.4386557   -2.0006833 
C     2.4351752    1.4780544   -2.0004884 
H     3.3983760    0.9708565   -2.0007341 
C     1.2487771    0.7332523   -2.0001534 
C     1.2487771   -0.7332523   -2.0001534 
C     2.4351752   -1.4780544   -2.0004884 
H     3.3983760   -0.9708565   -2.0007341 
C     2.4302724   -2.8745540   -2.0005203 
H     3.3633711   -3.4386557   -2.0006833 
C     1.2321714   -3.5753514   -2.0002164 
C     1.2565309    5.0574460   -1.9996859 
C    -1.2565309    5.0574460   -1.9996859 
N    -0.0000000    5.6683483   -1.9999363 
H    -0.0000000    6.6891480   -2.0000606 
O     2.2810320    5.7311437   -1.9995278 
O    -2.2810320    5.7311437   -1.9995278 
C    -1.2565309   -5.0574460   -1.9996859 
C     1.2565309   -5.0574460   -1.9996859 
N    -0.0000000   -5.6683483   -1.9999363 
O     2.2810320   -5.7311437   -1.9995278 
O    -2.2810320   -5.7311437   -1.9995278 
H    -0.0000000   -6.6891480   -2.0000606 
C    -1.2487771    0.7332523    2.0001534 
C    -0.0000000    1.4341496    1.9999360 
C    -0.0000000    2.8684491    1.9998700 
C    -1.2321714    3.5753514    2.0002164 
C    -2.4302724    2.8745540    2.0005203 
C    -2.4351752    1.4780544    2.0004884 
C    -1.2487771   -0.7332523    2.0001534 
C    -0.0000000   -1.4341496    1.9999360 
C    -0.0000000   -2.8684491    1.9998700 
C    -1.2321714   -3.5753514    2.0002164 
C    -2.4302724   -2.8745540    2.0005203 
C    -2.4351752   -1.4780544    2.0004884 
H    -3.3633711    3.4386557    2.0006833 
H    -3.3983760    0.9708565    2.0007341 
H    -3.3633711   -3.4386557    2.0006833 
H    -3.3983760   -0.9708565    2.0007341 
C     1.2321714    3.5753514    2.0002164 
C     2.4302724    2.8745540    2.0005203 
H     3.3633711    3.4386557    2.0006833 
C     2.4351752    1.4780544    2.0004884 
H     3.3983760    0.9708565    2.0007341 
C     1.2487771    0.7332523    2.0001534 
C     1.2487771   -0.7332523    2.0001534 
C     2.4351752   -1.4780544    2.0004884 
H     3.3983760   -0.9708565    2.0007341 
C     2.4302724   -2.8745540    2.0005203 
H     3.3633711   -3.4386557    2.0006833 
C     1.2321714   -3.5753514    2.0002164 
C     1.2565309    5.0574460    1.9996859 
C    -1.2565309    5.0574460    1.9996859 
N    -0.0000000    5.6683483    1.9999363 
H    -0.0000000    6.6891480    2.0000606 
O     2.2810320    5.7311437    1.9995278 
O    -2.2810320    5.7311437    1.9995278 
C    -1.2565309   -5.0574460    1.9996859 
C     1.2565309   -5.0574460    1.9996859 
N    -0.0000000   -5.6683483    1.9999363 
O     2.2810320   -5.7311437    1.9995278 
O    -2.2810320   -5.7311437    1.9995278 
H    -0.0000000   -6.6891480    2.0000606 
