72
Energy = -1683.000041505
C    -3.6834497    0.7286188   -1.7488356 
C    -4.9436292    1.4108710   -1.7467422 
C    -6.1242532    0.7154834   -1.7465399 
C    -6.1242532   -0.7154834   -1.7465399 
C    -4.9436292   -1.4108710   -1.7467422 
C    -3.6834497   -0.7286188   -1.7488356 
H    -4.9426942    2.5028567   -1.7454061 
H    -7.0750180    1.2504701   -1.7449503 
H    -7.0750180   -1.2504701   -1.7449503 
H    -4.9426942   -2.5028567   -1.7454061 
C    -2.4684659   -1.4100589   -1.7517494 
C    -1.2282010   -0.7304395   -1.7521410 
C    -1.2282010    0.7304395   -1.7521410 
C    -2.4684659    1.4100589   -1.7517494 
H    -2.4693640   -2.5033226   -1.7524996 
H    -2.4693640    2.5033226   -1.7524996 
C     0.0000000   -1.4109266   -1.7526886 
C     1.2282010   -0.7304395   -1.7521410 
C     1.2282010    0.7304395   -1.7521410 
C     0.0000000    1.4109266   -1.7526886 
H     0.0000000   -2.5040193   -1.7526748 
H     0.0000000    2.5040193   -1.7526748 
C     2.4684659   -1.4100589   -1.7517494 
C     3.6834497   -0.7286188   -1.7488356 
C     3.6834497    0.7286188   -1.7488356 
C     2.4684659    1.4100589   -1.7517494 
H     2.4693640   -2.5033226   -1.7524996 
H     2.4693640    2.5033226   -1.7524996 
C     4.9436292   -1.4108710   -1.7467422 
C     6.1242532   -0.7154834   -1.7465399 
C     6.1242532    0.7154834   -1.7465399 
C     4.9436292    1.4108710   -1.7467422 
H     4.9426942   -2.5028567   -1.7454061 
H     7.0750180   -1.2504701   -1.7449503 
H     7.0750180    1.2504701   -1.7449503 
H     4.9426942    2.5028567   -1.7454061 
C    -3.6834497    0.7286188    1.7488356 
C    -4.9436292    1.4108710    1.7467422 
C    -6.1242532    0.7154834    1.7465399 
C    -6.1242532   -0.7154834    1.7465399 
C    -4.9436292   -1.4108710    1.7467422 
C    -3.6834497   -0.7286188    1.7488356 
H    -4.9426942    2.5028567    1.7454061 
H    -7.0750180    1.2504701    1.7449503 
H    -7.0750180   -1.2504701    1.7449503 
H    -4.9426942   -2.5028567    1.7454061 
C    -2.4684659   -1.4100589    1.7517494 
C    -1.2282010   -0.7304395    1.7521410 
C    -1.2282010    0.7304395    1.7521410 
C    -2.4684659    1.4100589    1.7517494 
H    -2.4693640   -2.5033226    1.7524996 
H    -2.4693640    2.5033226    1.7524996 
C     0.0000000   -1.4109266    1.7526886 
C     1.2282010   -0.7304395    1.7521410 
C     1.2282010    0.7304395    1.7521410 
C     0.0000000    1.4109266    1.7526886 
H     0.0000000   -2.5040193    1.7526748 
H     0.0000000    2.5040193    1.7526748 
C     2.4684659   -1.4100589    1.7517494 
C     3.6834497   -0.7286188    1.7488356 
C     3.6834497    0.7286188    1.7488356 
C     2.4684659    1.4100589    1.7517494 
H     2.4693640   -2.5033226    1.7524996 
H     2.4693640    2.5033226    1.7524996 
C     4.9436292   -1.4108710    1.7467422 
C     6.1242532   -0.7154834    1.7465399 
C     6.1242532    0.7154834    1.7465399 
C     4.9436292    1.4108710    1.7467422 
H     4.9426942   -2.5028567    1.7454061 
H     7.0750180   -1.2504701    1.7449503 
H     7.0750180    1.2504701    1.7449503 
H     4.9426942    2.5028567    1.7454061 
